ITEM: TIMESTEP
0
ITEM: NUMBER OF ATOMS
20
ITEM: BOX BOUNDS pp pp pp
-1.1500000000000000e+02 1.1500000000000000e+02
-1.1500000000000000e+02 1.1500000000000000e+02
-1.1500000000000000e+02 1.1500000000000000e+02
ITEM: ATOMS id type x y z c_quat[1] c_quat[2] c_quat[3] c_quat[4] c_shape[1] c_shape[2] c_shape[3] vx vy vz angmomx angmomy angmomz mol 
1 2 0 0 0 1 0 0 0 0.586992 0.586992 0.586992 -0.120662 -0.255424 0.213789 0 0 0 1 
2 2 0.132745 -0.429128 0.375062 0.955336 0 0 0.29552 0.586992 0.586992 0.586992 0.0834641 0.238237 -0.202857 0 0 0 1 
3 2 0.484608 -0.70835 0.750123 0.825336 0 0 0.564642 0.586992 0.586992 0.586992 0.0193511 0.135814 -0.116219 0 0 0 1 
4 2 0.932674 -0.740124 1.12518 0.62161 0 0 0.783327 0.586992 0.586992 0.586992 0.101297 0.0443199 0.136614 0 0 0 1 
5 2 1.32042 -0.513352 1.50025 0.362358 0 0 0.932039 0.586992 0.586992 0.586992 0.133566 -0.13011 0.172933 0 0 0 1 
6 3 0.199581 0.513352 1.50025 0 0.932039 -0.362358 0 0.586992 0.586992 0.586992 -0.196419 -0.047807 0.121986 0 0 0 1 
7 3 0.587326 0.740124 1.12518 0 0.783327 -0.62161 0 0.586992 0.586992 0.586992 0.159703 -0.239538 0.0402914 0 0 0 1 
8 3 1.03539 0.70835 0.750123 0 0.564642 -0.825336 0 0.586992 0.586992 0.586992 0.0633523 0.27405 -0.0248899 0 0 0 1 
9 3 1.38726 0.429128 0.375062 0 0.29552 -0.955336 0 0.586992 0.586992 0.586992 0.0454271 -0.0949375 0.00414135 0 0 0 1 
10 3 1.52 0 0 0 0 -1 0 0.586992 0.586992 0.586992 -0.010531 -0.19788 0.304703 0 0 0 1 
11 2 0 0 0 1 0 0 0 0.586992 0.586992 0.586992 0.174671 -0.0492693 -0.332315 0 0 0 2 
12 2 0.132745 -0.429128 0.375062 0.955336 0 0 0.29552 0.586992 0.586992 0.586992 -0.100483 -0.0403595 0.18198 0 0 0 2 
13 2 0.484608 -0.70835 0.750123 0.825336 0 0 0.564642 0.586992 0.586992 0.586992 -0.183279 -0.314096 -0.311522 0 0 0 2 
14 2 0.932674 -0.740124 1.12518 0.62161 0 0 0.783327 0.586992 0.586992 0.586992 -0.0934858 0.154055 0.026947 0 0 0 2 
15 2 1.32042 -0.513352 1.50025 0.362358 0 0 0.932039 0.586992 0.586992 0.586992 0.180908 -0.161761 0.0933322 0 0 0 2 
16 3 0.199581 0.513352 1.50025 0 0.932039 -0.362358 0 0.586992 0.586992 0.586992 -0.206047 0.174799 0.202841 0 0 0 2 
17 3 0.587326 0.740124 1.12518 0 0.783327 -0.62161 0 0.586992 0.586992 0.586992 0.159365 0.104977 -0.195292 0 0 0 2 
18 3 1.03539 0.70835 0.750123 0 0.564642 -0.825336 0 0.586992 0.586992 0.586992 -0.0680818 0.119019 0.185424 0 0 0 2 
19 3 1.38726 0.429128 0.375062 0 0.29552 -0.955336 0 0.586992 0.586992 0.586992 0.141391 0.243555 -0.247507 0 0 0 2 
20 3 1.52 0 0 0 0 -1 0 0.586992 0.586992 0.586992 -0.283509 0.0423569 -0.254381 0 0 0 2 
ITEM: TIMESTEP
10
ITEM: NUMBER OF ATOMS
20
ITEM: BOX BOUNDS pp pp pp
-1.1500000000000000e+02 1.1500000000000000e+02
-1.1500000000000000e+02 1.1500000000000000e+02
-1.1500000000000000e+02 1.1500000000000000e+02
ITEM: ATOMS id type x y z c_quat[1] c_quat[2] c_quat[3] c_quat[4] c_shape[1] c_shape[2] c_shape[3] vx vy vz angmomx angmomy angmomz mol 
1 2 0 0 0 1 0 0 0 0.586992 0.586992 0.586992 -0.120662 -0.255424 0.213789 0 0 0 1 
2 2 0.132745 -0.429128 0.375062 0.955336 0 0 0.29552 0.586992 0.586992 0.586992 0.0834641 0.238237 -0.202857 0 0 0 1 
3 2 0.484608 -0.70835 0.750123 0.825336 0 0 0.564642 0.586992 0.586992 0.586992 0.0193511 0.135814 -0.116219 0 0 0 1 
4 2 0.932674 -0.740124 1.12518 0.62161 0 0 0.783327 0.586992 0.586992 0.586992 0.101297 0.0443199 0.136614 0 0 0 1 
5 2 1.32042 -0.513352 1.50025 0.362358 0 0 0.932039 0.586992 0.586992 0.586992 0.133566 -0.13011 0.172933 0 0 0 1 
6 3 0.199581 0.513352 1.50025 0 0.932039 -0.362358 0 0.586992 0.586992 0.586992 -0.196419 -0.047807 0.121986 0 0 0 1 
7 3 0.587326 0.740124 1.12518 0 0.783327 -0.62161 0 0.586992 0.586992 0.586992 0.159703 -0.239538 0.0402914 0 0 0 1 
8 3 1.03539 0.70835 0.750123 0 0.564642 -0.825336 0 0.586992 0.586992 0.586992 0.0633523 0.27405 -0.0248899 0 0 0 1 
9 3 1.38726 0.429128 0.375062 0 0.29552 -0.955336 0 0.586992 0.586992 0.586992 0.0454271 -0.0949375 0.00414135 0 0 0 1 
10 3 1.52 0 0 0 0 -1 0 0.586992 0.586992 0.586992 -0.010531 -0.19788 0.304703 0 0 0 1 
11 2 0.07 0 0 1 0 0 0 0.586992 0.586992 0.586992 7 0 0 0 0 0 2 
12 2 0.202745 -0.429128 0.375062 0.955336 0 0 0.29552 0.586992 0.586992 0.586992 7 0 0 0 0 0 2 
13 2 0.554608 -0.70835 0.750123 0.825336 0 0 0.564642 0.586992 0.586992 0.586992 7 0 0 0 0 0 2 
14 2 1.00267 -0.740124 1.12518 0.62161 0 0 0.783327 0.586992 0.586992 0.586992 7 0 0 0 0 0 2 
15 2 1.39042 -0.513352 1.50025 0.362358 0 0 0.932039 0.586992 0.586992 0.586992 7 0 0 0 0 0 2 
16 3 0.269581 0.513352 1.50025 0 0.932039 -0.362358 0 0.586992 0.586992 0.586992 7 0 0 0 0 0 2 
17 3 0.657326 0.740124 1.12518 0 0.783327 -0.62161 0 0.586992 0.586992 0.586992 7 0 0 0 0 0 2 
18 3 1.10539 0.70835 0.750123 0 0.564642 -0.825336 0 0.586992 0.586992 0.586992 7 0 0 0 0 0 2 
19 3 1.45726 0.429128 0.375062 0 0.29552 -0.955336 0 0.586992 0.586992 0.586992 7 0 0 0 0 0 2 
20 3 1.59 0 0 0 0 -1 0 0.586992 0.586992 0.586992 7 0 0 0 0 0 2 
ITEM: TIMESTEP
20
ITEM: NUMBER OF ATOMS
20
ITEM: BOX BOUNDS pp pp pp
-1.1500000000000000e+02 1.1500000000000000e+02
-1.1500000000000000e+02 1.1500000000000000e+02
-1.1500000000000000e+02 1.1500000000000000e+02
ITEM: ATOMS id type x y z c_quat[1] c_quat[2] c_quat[3] c_quat[4] c_shape[1] c_shape[2] c_shape[3] vx vy vz angmomx angmomy angmomz mol 
1 2 0 0 0 1 0 0 0 0.586992 0.586992 0.586992 -0.120662 -0.255424 0.213789 0 0 0 1 
2 2 0.132745 -0.429128 0.375062 0.955336 0 0 0.29552 0.586992 0.586992 0.586992 0.0834641 0.238237 -0.202857 0 0 0 1 
3 2 0.484608 -0.70835 0.750123 0.825336 0 0 0.564642 0.586992 0.586992 0.586992 0.0193511 0.135814 -0.116219 0 0 0 1 
4 2 0.932674 -0.740124 1.12518 0.62161 0 0 0.783327 0.586992 0.586992 0.586992 0.101297 0.0443199 0.136614 0 0 0 1 
5 2 1.32042 -0.513352 1.50025 0.362358 0 0 0.932039 0.586992 0.586992 0.586992 0.133566 -0.13011 0.172933 0 0 0 1 
6 3 0.199581 0.513352 1.50025 0 0.932039 -0.362358 0 0.586992 0.586992 0.586992 -0.196419 -0.047807 0.121986 0 0 0 1 
7 3 0.587326 0.740124 1.12518 0 0.783327 -0.62161 0 0.586992 0.586992 0.586992 0.159703 -0.239538 0.0402914 0 0 0 1 
8 3 1.03539 0.70835 0.750123 0 0.564642 -0.825336 0 0.586992 0.586992 0.586992 0.0633523 0.27405 -0.0248899 0 0 0 1 
9 3 1.38726 0.429128 0.375062 0 0.29552 -0.955336 0 0.586992 0.586992 0.586992 0.0454271 -0.0949375 0.00414135 0 0 0 1 
10 3 1.52 0 0 0 0 -1 0 0.586992 0.586992 0.586992 -0.010531 -0.19788 0.304703 0 0 0 1 
11 2 0.14 0 0 1 0 0 0 0.586992 0.586992 0.586992 7 0 0 0 0 0 2 
12 2 0.272745 -0.429128 0.375062 0.955336 0 0 0.29552 0.586992 0.586992 0.586992 7 0 0 0 0 0 2 
13 2 0.624608 -0.70835 0.750123 0.825336 0 0 0.564642 0.586992 0.586992 0.586992 7 0 0 0 0 0 2 
14 2 1.07267 -0.740124 1.12518 0.62161 0 0 0.783327 0.586992 0.586992 0.586992 7 0 0 0 0 0 2 
15 2 1.46042 -0.513352 1.50025 0.362358 0 0 0.932039 0.586992 0.586992 0.586992 7 0 0 0 0 0 2 
16 3 0.339581 0.513352 1.50025 0 0.932039 -0.362358 0 0.586992 0.586992 0.586992 7 0 0 0 0 0 2 
17 3 0.727326 0.740124 1.12518 0 0.783327 -0.62161 0 0.586992 0.586992 0.586992 7 0 0 0 0 0 2 
18 3 1.17539 0.70835 0.750123 0 0.564642 -0.825336 0 0.586992 0.586992 0.586992 7 0 0 0 0 0 2 
19 3 1.52726 0.429128 0.375062 0 0.29552 -0.955336 0 0.586992 0.586992 0.586992 7 0 0 0 0 0 2 
20 3 1.66 0 0 0 0 -1 0 0.586992 0.586992 0.586992 7 0 0 0 0 0 2 
ITEM: TIMESTEP
30
ITEM: NUMBER OF ATOMS
20
ITEM: BOX BOUNDS pp pp pp
-1.1500000000000000e+02 1.1500000000000000e+02
-1.1500000000000000e+02 1.1500000000000000e+02
-1.1500000000000000e+02 1.1500000000000000e+02
ITEM: ATOMS id type x y z c_quat[1] c_quat[2] c_quat[3] c_quat[4] c_shape[1] c_shape[2] c_shape[3] vx vy vz angmomx angmomy angmomz mol 
1 2 0 0 0 1 0 0 0 0.586992 0.586992 0.586992 -0.120662 -0.255424 0.213789 0 0 0 1 
2 2 0.132745 -0.429128 0.375062 0.955336 0 0 0.29552 0.586992 0.586992 0.586992 0.0834641 0.238237 -0.202857 0 0 0 1 
3 2 0.484608 -0.70835 0.750123 0.825336 0 0 0.564642 0.586992 0.586992 0.586992 0.0193511 0.135814 -0.116219 0 0 0 1 
4 2 0.932674 -0.740124 1.12518 0.62161 0 0 0.783327 0.586992 0.586992 0.586992 0.101297 0.0443199 0.136614 0 0 0 1 
5 2 1.32042 -0.513352 1.50025 0.362358 0 0 0.932039 0.586992 0.586992 0.586992 0.133566 -0.13011 0.172933 0 0 0 1 
6 3 0.199581 0.513352 1.50025 0 0.932039 -0.362358 0 0.586992 0.586992 0.586992 -0.196419 -0.047807 0.121986 0 0 0 1 
7 3 0.587326 0.740124 1.12518 0 0.783327 -0.62161 0 0.586992 0.586992 0.586992 0.159703 -0.239538 0.0402914 0 0 0 1 
8 3 1.03539 0.70835 0.750123 0 0.564642 -0.825336 0 0.586992 0.586992 0.586992 0.0633523 0.27405 -0.0248899 0 0 0 1 
9 3 1.38726 0.429128 0.375062 0 0.29552 -0.955336 0 0.586992 0.586992 0.586992 0.0454271 -0.0949375 0.00414135 0 0 0 1 
10 3 1.52 0 0 0 0 -1 0 0.586992 0.586992 0.586992 -0.010531 -0.19788 0.304703 0 0 0 1 
11 2 0.21 0 0 1 0 0 0 0.586992 0.586992 0.586992 7 0 0 0 0 0 2 
12 2 0.342745 -0.429128 0.375062 0.955336 0 0 0.29552 0.586992 0.586992 0.586992 7 0 0 0 0 0 2 
13 2 0.694608 -0.70835 0.750123 0.825336 0 0 0.564642 0.586992 0.586992 0.586992 7 0 0 0 0 0 2 
14 2 1.14267 -0.740124 1.12518 0.62161 0 0 0.783327 0.586992 0.586992 0.586992 7 0 0 0 0 0 2 
15 2 1.53042 -0.513352 1.50025 0.362358 0 0 0.932039 0.586992 0.586992 0.586992 7 0 0 0 0 0 2 
16 3 0.409581 0.513352 1.50025 0 0.932039 -0.362358 0 0.586992 0.586992 0.586992 7 0 0 0 0 0 2 
17 3 0.797326 0.740124 1.12518 0 0.783327 -0.62161 0 0.586992 0.586992 0.586992 7 0 0 0 0 0 2 
18 3 1.24539 0.70835 0.750123 0 0.564642 -0.825336 0 0.586992 0.586992 0.586992 7 0 0 0 0 0 2 
19 3 1.59726 0.429128 0.375062 0 0.29552 -0.955336 0 0.586992 0.586992 0.586992 7 0 0 0 0 0 2 
20 3 1.73 0 0 0 0 -1 0 0.586992 0.586992 0.586992 7 0 0 0 0 0 2 
ITEM: TIMESTEP
40
ITEM: NUMBER OF ATOMS
20
ITEM: BOX BOUNDS pp pp pp
-1.1500000000000000e+02 1.1500000000000000e+02
-1.1500000000000000e+02 1.1500000000000000e+02
-1.1500000000000000e+02 1.1500000000000000e+02
ITEM: ATOMS id type x y z c_quat[1] c_quat[2] c_quat[3] c_quat[4] c_shape[1] c_shape[2] c_shape[3] vx vy vz angmomx angmomy angmomz mol 
1 2 0 0 0 1 0 0 0 0.586992 0.586992 0.586992 -0.120662 -0.255424 0.213789 0 0 0 1 
2 2 0.132745 -0.429128 0.375062 0.955336 0 0 0.29552 0.586992 0.586992 0.586992 0.0834641 0.238237 -0.202857 0 0 0 1 
3 2 0.484608 -0.70835 0.750123 0.825336 0 0 0.564642 0.586992 0.586992 0.586992 0.0193511 0.135814 -0.116219 0 0 0 1 
4 2 0.932674 -0.740124 1.12518 0.62161 0 0 0.783327 0.586992 0.586992 0.586992 0.101297 0.0443199 0.136614 0 0 0 1 
5 2 1.32042 -0.513352 1.50025 0.362358 0 0 0.932039 0.586992 0.586992 0.586992 0.133566 -0.13011 0.172933 0 0 0 1 
6 3 0.199581 0.513352 1.50025 0 0.932039 -0.362358 0 0.586992 0.586992 0.586992 -0.196419 -0.047807 0.121986 0 0 0 1 
7 3 0.587326 0.740124 1.12518 0 0.783327 -0.62161 0 0.586992 0.586992 0.586992 0.159703 -0.239538 0.0402914 0 0 0 1 
8 3 1.03539 0.70835 0.750123 0 0.564642 -0.825336 0 0.586992 0.586992 0.586992 0.0633523 0.27405 -0.0248899 0 0 0 1 
9 3 1.38726 0.429128 0.375062 0 0.29552 -0.955336 0 0.586992 0.586992 0.586992 0.0454271 -0.0949375 0.00414135 0 0 0 1 
10 3 1.52 0 0 0 0 -1 0 0.586992 0.586992 0.586992 -0.010531 -0.19788 0.304703 0 0 0 1 
11 2 0.28 0 0 1 0 0 0 0.586992 0.586992 0.586992 7 0 0 0 0 0 2 
12 2 0.412745 -0.429128 0.375062 0.955336 0 0 0.29552 0.586992 0.586992 0.586992 7 0 0 0 0 0 2 
13 2 0.764608 -0.70835 0.750123 0.825336 0 0 0.564642 0.586992 0.586992 0.586992 7 0 0 0 0 0 2 
14 2 1.21267 -0.740124 1.12518 0.62161 0 0 0.783327 0.586992 0.586992 0.586992 7 0 0 0 0 0 2 
15 2 1.60042 -0.513352 1.50025 0.362358 0 0 0.932039 0.586992 0.586992 0.586992 7 0 0 0 0 0 2 
16 3 0.479581 0.513352 1.50025 0 0.932039 -0.362358 0 0.586992 0.586992 0.586992 7 0 0 0 0 0 2 
17 3 0.867326 0.740124 1.12518 0 0.783327 -0.62161 0 0.586992 0.586992 0.586992 7 0 0 0 0 0 2 
18 3 1.31539 0.70835 0.750123 0 0.564642 -0.825336 0 0.586992 0.586992 0.586992 7 0 0 0 0 0 2 
19 3 1.66726 0.429128 0.375062 0 0.29552 -0.955336 0 0.586992 0.586992 0.586992 7 0 0 0 0 0 2 
20 3 1.8 0 0 0 0 -1 0 0.586992 0.586992 0.586992 7 0 0 0 0 0 2 
ITEM: TIMESTEP
50
ITEM: NUMBER OF ATOMS
20
ITEM: BOX BOUNDS pp pp pp
-1.1500000000000000e+02 1.1500000000000000e+02
-1.1500000000000000e+02 1.1500000000000000e+02
-1.1500000000000000e+02 1.1500000000000000e+02
ITEM: ATOMS id type x y z c_quat[1] c_quat[2] c_quat[3] c_quat[4] c_shape[1] c_shape[2] c_shape[3] vx vy vz angmomx angmomy angmomz mol 
1 2 0 0 0 1 0 0 0 0.586992 0.586992 0.586992 -0.120662 -0.255424 0.213789 0 0 0 1 
2 2 0.132745 -0.429128 0.375062 0.955336 0 0 0.29552 0.586992 0.586992 0.586992 0.0834641 0.238237 -0.202857 0 0 0 1 
3 2 0.484608 -0.70835 0.750123 0.825336 0 0 0.564642 0.586992 0.586992 0.586992 0.0193511 0.135814 -0.116219 0 0 0 1 
4 2 0.932674 -0.740124 1.12518 0.62161 0 0 0.783327 0.586992 0.586992 0.586992 0.101297 0.0443199 0.136614 0 0 0 1 
5 2 1.32042 -0.513352 1.50025 0.362358 0 0 0.932039 0.586992 0.586992 0.586992 0.133566 -0.13011 0.172933 0 0 0 1 
6 3 0.199581 0.513352 1.50025 0 0.932039 -0.362358 0 0.586992 0.586992 0.586992 -0.196419 -0.047807 0.121986 0 0 0 1 
7 3 0.587326 0.740124 1.12518 0 0.783327 -0.62161 0 0.586992 0.586992 0.586992 0.159703 -0.239538 0.0402914 0 0 0 1 
8 3 1.03539 0.70835 0.750123 0 0.564642 -0.825336 0 0.586992 0.586992 0.586992 0.0633523 0.27405 -0.0248899 0 0 0 1 
9 3 1.38726 0.429128 0.375062 0 0.29552 -0.955336 0 0.586992 0.586992 0.586992 0.0454271 -0.0949375 0.00414135 0 0 0 1 
10 3 1.52 0 0 0 0 -1 0 0.586992 0.586992 0.586992 -0.010531 -0.19788 0.304703 0 0 0 1 
11 2 0.35 0 0 1 0 0 0 0.586992 0.586992 0.586992 7 0 0 0 0 0 2 
12 2 0.482745 -0.429128 0.375062 0.955336 0 0 0.29552 0.586992 0.586992 0.586992 7 0 0 0 0 0 2 
13 2 0.834608 -0.70835 0.750123 0.825336 0 0 0.564642 0.586992 0.586992 0.586992 7 0 0 0 0 0 2 
14 2 1.28267 -0.740124 1.12518 0.62161 0 0 0.783327 0.586992 0.586992 0.586992 7 0 0 0 0 0 2 
15 2 1.67042 -0.513352 1.50025 0.362358 0 0 0.932039 0.586992 0.586992 0.586992 7 0 0 0 0 0 2 
16 3 0.549581 0.513352 1.50025 0 0.932039 -0.362358 0 0.586992 0.586992 0.586992 7 0 0 0 0 0 2 
17 3 0.937326 0.740124 1.12518 0 0.783327 -0.62161 0 0.586992 0.586992 0.586992 7 0 0 0 0 0 2 
18 3 1.38539 0.70835 0.750123 0 0.564642 -0.825336 0 0.586992 0.586992 0.586992 7 0 0 0 0 0 2 
19 3 1.73726 0.429128 0.375062 0 0.29552 -0.955336 0 0.586992 0.586992 0.586992 7 0 0 0 0 0 2 
20 3 1.87 0 0 0 0 -1 0 0.586992 0.586992 0.586992 7 0 0 0 0 0 2 
ITEM: TIMESTEP
60
ITEM: NUMBER OF ATOMS
20
ITEM: BOX BOUNDS pp pp pp
-1.1500000000000000e+02 1.1500000000000000e+02
-1.1500000000000000e+02 1.1500000000000000e+02
-1.1500000000000000e+02 1.1500000000000000e+02
ITEM: ATOMS id type x y z c_quat[1] c_quat[2] c_quat[3] c_quat[4] c_shape[1] c_shape[2] c_shape[3] vx vy vz angmomx angmomy angmomz mol 
1 2 0 0 0 1 0 0 0 0.586992 0.586992 0.586992 -0.120662 -0.255424 0.213789 0 0 0 1 
2 2 0.132745 -0.429128 0.375062 0.955336 0 0 0.29552 0.586992 0.586992 0.586992 0.0834641 0.238237 -0.202857 0 0 0 1 
3 2 0.484608 -0.70835 0.750123 0.825336 0 0 0.564642 0.586992 0.586992 0.586992 0.0193511 0.135814 -0.116219 0 0 0 1 
4 2 0.932674 -0.740124 1.12518 0.62161 0 0 0.783327 0.586992 0.586992 0.586992 0.101297 0.0443199 0.136614 0 0 0 1 
5 2 1.32042 -0.513352 1.50025 0.362358 0 0 0.932039 0.586992 0.586992 0.586992 0.133566 -0.13011 0.172933 0 0 0 1 
6 3 0.199581 0.513352 1.50025 0 0.932039 -0.362358 0 0.586992 0.586992 0.586992 -0.196419 -0.047807 0.121986 0 0 0 1 
7 3 0.587326 0.740124 1.12518 0 0.783327 -0.62161 0 0.586992 0.586992 0.586992 0.159703 -0.239538 0.0402914 0 0 0 1 
8 3 1.03539 0.70835 0.750123 0 0.564642 -0.825336 0 0.586992 0.586992 0.586992 0.0633523 0.27405 -0.0248899 0 0 0 1 
9 3 1.38726 0.429128 0.375062 0 0.29552 -0.955336 0 0.586992 0.586992 0.586992 0.0454271 -0.0949375 0.00414135 0 0 0 1 
10 3 1.52 0 0 0 0 -1 0 0.586992 0.586992 0.586992 -0.010531 -0.19788 0.304703 0 0 0 1 
11 2 0.42 0 0 1 0 0 0 0.586992 0.586992 0.586992 7 0 0 0 0 0 2 
12 2 0.552745 -0.429128 0.375062 0.955336 0 0 0.29552 0.586992 0.586992 0.586992 7 0 0 0 0 0 2 
13 2 0.904608 -0.70835 0.750123 0.825336 0 0 0.564642 0.586992 0.586992 0.586992 7 0 0 0 0 0 2 
14 2 1.35267 -0.740124 1.12518 0.62161 0 0 0.783327 0.586992 0.586992 0.586992 7 0 0 0 0 0 2 
15 2 1.74042 -0.513352 1.50025 0.362358 0 0 0.932039 0.586992 0.586992 0.586992 7 0 0 0 0 0 2 
16 3 0.619581 0.513352 1.50025 0 0.932039 -0.362358 0 0.586992 0.586992 0.586992 7 0 0 0 0 0 2 
17 3 1.00733 0.740124 1.12518 0 0.783327 -0.62161 0 0.586992 0.586992 0.586992 7 0 0 0 0 0 2 
18 3 1.45539 0.70835 0.750123 0 0.564642 -0.825336 0 0.586992 0.586992 0.586992 7 0 0 0 0 0 2 
19 3 1.80726 0.429128 0.375062 0 0.29552 -0.955336 0 0.586992 0.586992 0.586992 7 0 0 0 0 0 2 
20 3 1.94 0 0 0 0 -1 0 0.586992 0.586992 0.586992 7 0 0 0 0 0 2 
ITEM: TIMESTEP
70
ITEM: NUMBER OF ATOMS
20
ITEM: BOX BOUNDS pp pp pp
-1.1500000000000000e+02 1.1500000000000000e+02
-1.1500000000000000e+02 1.1500000000000000e+02
-1.1500000000000000e+02 1.1500000000000000e+02
ITEM: ATOMS id type x y z c_quat[1] c_quat[2] c_quat[3] c_quat[4] c_shape[1] c_shape[2] c_shape[3] vx vy vz angmomx angmomy angmomz mol 
1 2 0 0 0 1 0 0 0 0.586992 0.586992 0.586992 -0.120662 -0.255424 0.213789 0 0 0 1 
2 2 0.132745 -0.429128 0.375062 0.955336 0 0 0.29552 0.586992 0.586992 0.586992 0.0834641 0.238237 -0.202857 0 0 0 1 
3 2 0.484608 -0.70835 0.750123 0.825336 0 0 0.564642 0.586992 0.586992 0.586992 0.0193511 0.135814 -0.116219 0 0 0 1 
4 2 0.932674 -0.740124 1.12518 0.62161 0 0 0.783327 0.586992 0.586992 0.586992 0.101297 0.0443199 0.136614 0 0 0 1 
5 2 1.32042 -0.513352 1.50025 0.362358 0 0 0.932039 0.586992 0.586992 0.586992 0.133566 -0.13011 0.172933 0 0 0 1 
6 3 0.199581 0.513352 1.50025 0 0.932039 -0.362358 0 0.586992 0.586992 0.586992 -0.196419 -0.047807 0.121986 0 0 0 1 
7 3 0.587326 0.740124 1.12518 0 0.783327 -0.62161 0 0.586992 0.586992 0.586992 0.159703 -0.239538 0.0402914 0 0 0 1 
8 3 1.03539 0.70835 0.750123 0 0.564642 -0.825336 0 0.586992 0.586992 0.586992 0.0633523 0.27405 -0.0248899 0 0 0 1 
9 3 1.38726 0.429128 0.375062 0 0.29552 -0.955336 0 0.586992 0.586992 0.586992 0.0454271 -0.0949375 0.00414135 0 0 0 1 
10 3 1.52 0 0 0 0 -1 0 0.586992 0.586992 0.586992 -0.010531 -0.19788 0.304703 0 0 0 1 
11 2 0.49 0 0 1 0 0 0 0.586992 0.586992 0.586992 7 0 0 0 0 0 2 
12 2 0.622745 -0.429128 0.375062 0.955336 0 0 0.29552 0.586992 0.586992 0.586992 7 0 0 0 0 0 2 
13 2 0.974608 -0.70835 0.750123 0.825336 0 0 0.564642 0.586992 0.586992 0.586992 7 0 0 0 0 0 2 
14 2 1.42267 -0.740124 1.12518 0.62161 0 0 0.783327 0.586992 0.586992 0.586992 7 0 0 0 0 0 2 
15 2 1.81042 -0.513352 1.50025 0.362358 0 0 0.932039 0.586992 0.586992 0.586992 7 0 0 0 0 0 2 
16 3 0.689581 0.513352 1.50025 0 0.932039 -0.362358 0 0.586992 0.586992 0.586992 7 0 0 0 0 0 2 
17 3 1.07733 0.740124 1.12518 0 0.783327 -0.62161 0 0.586992 0.586992 0.586992 7 0 0 0 0 0 2 
18 3 1.52539 0.70835 0.750123 0 0.564642 -0.825336 0 0.586992 0.586992 0.586992 7 0 0 0 0 0 2 
19 3 1.87726 0.429128 0.375062 0 0.29552 -0.955336 0 0.586992 0.586992 0.586992 7 0 0 0 0 0 2 
20 3 2.01 0 0 0 0 -1 0 0.586992 0.586992 0.586992 7 0 0 0 0 0 2 
ITEM: TIMESTEP
80
ITEM: NUMBER OF ATOMS
20
ITEM: BOX BOUNDS pp pp pp
-1.1500000000000000e+02 1.1500000000000000e+02
-1.1500000000000000e+02 1.1500000000000000e+02
-1.1500000000000000e+02 1.1500000000000000e+02
ITEM: ATOMS id type x y z c_quat[1] c_quat[2] c_quat[3] c_quat[4] c_shape[1] c_shape[2] c_shape[3] vx vy vz angmomx angmomy angmomz mol 
1 2 0 0 0 1 0 0 0 0.586992 0.586992 0.586992 -0.120662 -0.255424 0.213789 0 0 0 1 
2 2 0.132745 -0.429128 0.375062 0.955336 0 0 0.29552 0.586992 0.586992 0.586992 0.0834641 0.238237 -0.202857 0 0 0 1 
3 2 0.484608 -0.70835 0.750123 0.825336 0 0 0.564642 0.586992 0.586992 0.586992 0.0193511 0.135814 -0.116219 0 0 0 1 
4 2 0.932674 -0.740124 1.12518 0.62161 0 0 0.783327 0.586992 0.586992 0.586992 0.101297 0.0443199 0.136614 0 0 0 1 
5 2 1.32042 -0.513352 1.50025 0.362358 0 0 0.932039 0.586992 0.586992 0.586992 0.133566 -0.13011 0.172933 0 0 0 1 
6 3 0.199581 0.513352 1.50025 0 0.932039 -0.362358 0 0.586992 0.586992 0.586992 -0.196419 -0.047807 0.121986 0 0 0 1 
7 3 0.587326 0.740124 1.12518 0 0.783327 -0.62161 0 0.586992 0.586992 0.586992 0.159703 -0.239538 0.0402914 0 0 0 1 
8 3 1.03539 0.70835 0.750123 0 0.564642 -0.825336 0 0.586992 0.586992 0.586992 0.0633523 0.27405 -0.0248899 0 0 0 1 
9 3 1.38726 0.429128 0.375062 0 0.29552 -0.955336 0 0.586992 0.586992 0.586992 0.0454271 -0.0949375 0.00414135 0 0 0 1 
10 3 1.52 0 0 0 0 -1 0 0.586992 0.586992 0.586992 -0.010531 -0.19788 0.304703 0 0 0 1 
11 2 0.56 0 0 1 0 0 0 0.586992 0.586992 0.586992 7 0 0 0 0 0 2 
12 2 0.692745 -0.429128 0.375062 0.955336 0 0 0.29552 0.586992 0.586992 0.586992 7 0 0 0 0 0 2 
13 2 1.04461 -0.70835 0.750123 0.825336 0 0 0.564642 0.586992 0.586992 0.586992 7 0 0 0 0 0 2 
14 2 1.49267 -0.740124 1.12518 0.62161 0 0 0.783327 0.586992 0.586992 0.586992 7 0 0 0 0 0 2 
15 2 1.88042 -0.513352 1.50025 0.362358 0 0 0.932039 0.586992 0.586992 0.586992 7 0 0 0 0 0 2 
16 3 0.759581 0.513352 1.50025 0 0.932039 -0.362358 0 0.586992 0.586992 0.586992 7 0 0 0 0 0 2 
17 3 1.14733 0.740124 1.12518 0 0.783327 -0.62161 0 0.586992 0.586992 0.586992 7 0 0 0 0 0 2 
18 3 1.59539 0.70835 0.750123 0 0.564642 -0.825336 0 0.586992 0.586992 0.586992 7 0 0 0 0 0 2 
19 3 1.94726 0.429128 0.375062 0 0.29552 -0.955336 0 0.586992 0.586992 0.586992 7 0 0 0 0 0 2 
20 3 2.08 0 0 0 0 -1 0 0.586992 0.586992 0.586992 7 0 0 0 0 0 2 
ITEM: TIMESTEP
90
ITEM: NUMBER OF ATOMS
20
ITEM: BOX BOUNDS pp pp pp
-1.1500000000000000e+02 1.1500000000000000e+02
-1.1500000000000000e+02 1.1500000000000000e+02
-1.1500000000000000e+02 1.1500000000000000e+02
ITEM: ATOMS id type x y z c_quat[1] c_quat[2] c_quat[3] c_quat[4] c_shape[1] c_shape[2] c_shape[3] vx vy vz angmomx angmomy angmomz mol 
1 2 0 0 0 1 0 0 0 0.586992 0.586992 0.586992 -0.120662 -0.255424 0.213789 0 0 0 1 
2 2 0.132745 -0.429128 0.375062 0.955336 0 0 0.29552 0.586992 0.586992 0.586992 0.0834641 0.238237 -0.202857 0 0 0 1 
3 2 0.484608 -0.70835 0.750123 0.825336 0 0 0.564642 0.586992 0.586992 0.586992 0.0193511 0.135814 -0.116219 0 0 0 1 
4 2 0.932674 -0.740124 1.12518 0.62161 0 0 0.783327 0.586992 0.586992 0.586992 0.101297 0.0443199 0.136614 0 0 0 1 
5 2 1.32042 -0.513352 1.50025 0.362358 0 0 0.932039 0.586992 0.586992 0.586992 0.133566 -0.13011 0.172933 0 0 0 1 
6 3 0.199581 0.513352 1.50025 0 0.932039 -0.362358 0 0.586992 0.586992 0.586992 -0.196419 -0.047807 0.121986 0 0 0 1 
7 3 0.587326 0.740124 1.12518 0 0.783327 -0.62161 0 0.586992 0.586992 0.586992 0.159703 -0.239538 0.0402914 0 0 0 1 
8 3 1.03539 0.70835 0.750123 0 0.564642 -0.825336 0 0.586992 0.586992 0.586992 0.0633523 0.27405 -0.0248899 0 0 0 1 
9 3 1.38726 0.429128 0.375062 0 0.29552 -0.955336 0 0.586992 0.586992 0.586992 0.0454271 -0.0949375 0.00414135 0 0 0 1 
10 3 1.52 0 0 0 0 -1 0 0.586992 0.586992 0.586992 -0.010531 -0.19788 0.304703 0 0 0 1 
11 2 0.63 0 0 1 0 0 0 0.586992 0.586992 0.586992 7 0 0 0 0 0 2 
12 2 0.762745 -0.429128 0.375062 0.955336 0 0 0.29552 0.586992 0.586992 0.586992 7 0 0 0 0 0 2 
13 2 1.11461 -0.70835 0.750123 0.825336 0 0 0.564642 0.586992 0.586992 0.586992 7 0 0 0 0 0 2 
14 2 1.56267 -0.740124 1.12518 0.62161 0 0 0.783327 0.586992 0.586992 0.586992 7 0 0 0 0 0 2 
15 2 1.95042 -0.513352 1.50025 0.362358 0 0 0.932039 0.586992 0.586992 0.586992 7 0 0 0 0 0 2 
16 3 0.829581 0.513352 1.50025 0 0.932039 -0.362358 0 0.586992 0.586992 0.586992 7 0 0 0 0 0 2 
17 3 1.21733 0.740124 1.12518 0 0.783327 -0.62161 0 0.586992 0.586992 0.586992 7 0 0 0 0 0 2 
18 3 1.66539 0.70835 0.750123 0 0.564642 -0.825336 0 0.586992 0.586992 0.586992 7 0 0 0 0 0 2 
19 3 2.01726 0.429128 0.375062 0 0.29552 -0.955336 0 0.586992 0.586992 0.586992 7 0 0 0 0 0 2 
20 3 2.15 0 0 0 0 -1 0 0.586992 0.586992 0.586992 7 0 0 0 0 0 2 
ITEM: TIMESTEP
100
ITEM: NUMBER OF ATOMS
20
ITEM: BOX BOUNDS pp pp pp
-1.1500000000000000e+02 1.1500000000000000e+02
-1.1500000000000000e+02 1.1500000000000000e+02
-1.1500000000000000e+02 1.1500000000000000e+02
ITEM: ATOMS id type x y z c_quat[1] c_quat[2] c_quat[3] c_quat[4] c_shape[1] c_shape[2] c_shape[3] vx vy vz angmomx angmomy angmomz mol 
1 2 0 0 0 1 0 0 0 0.586992 0.586992 0.586992 -0.120662 -0.255424 0.213789 0 0 0 1 
2 2 0.132745 -0.429128 0.375062 0.955336 0 0 0.29552 0.586992 0.586992 0.586992 0.0834641 0.238237 -0.202857 0 0 0 1 
3 2 0.484608 -0.70835 0.750123 0.825336 0 0 0.564642 0.586992 0.586992 0.586992 0.0193511 0.135814 -0.116219 0 0 0 1 
4 2 0.932674 -0.740124 1.12518 0.62161 0 0 0.783327 0.586992 0.586992 0.586992 0.101297 0.0443199 0.136614 0 0 0 1 
5 2 1.32042 -0.513352 1.50025 0.362358 0 0 0.932039 0.586992 0.586992 0.586992 0.133566 -0.13011 0.172933 0 0 0 1 
6 3 0.199581 0.513352 1.50025 0 0.932039 -0.362358 0 0.586992 0.586992 0.586992 -0.196419 -0.047807 0.121986 0 0 0 1 
7 3 0.587326 0.740124 1.12518 0 0.783327 -0.62161 0 0.586992 0.586992 0.586992 0.159703 -0.239538 0.0402914 0 0 0 1 
8 3 1.03539 0.70835 0.750123 0 0.564642 -0.825336 0 0.586992 0.586992 0.586992 0.0633523 0.27405 -0.0248899 0 0 0 1 
9 3 1.38726 0.429128 0.375062 0 0.29552 -0.955336 0 0.586992 0.586992 0.586992 0.0454271 -0.0949375 0.00414135 0 0 0 1 
10 3 1.52 0 0 0 0 -1 0 0.586992 0.586992 0.586992 -0.010531 -0.19788 0.304703 0 0 0 1 
11 2 0.7 0 0 1 0 0 0 0.586992 0.586992 0.586992 7 0 0 0 0 0 2 
12 2 0.832745 -0.429128 0.375062 0.955336 0 0 0.29552 0.586992 0.586992 0.586992 7 0 0 0 0 0 2 
13 2 1.18461 -0.70835 0.750123 0.825336 0 0 0.564642 0.586992 0.586992 0.586992 7 0 0 0 0 0 2 
14 2 1.63267 -0.740124 1.12518 0.62161 0 0 0.783327 0.586992 0.586992 0.586992 7 0 0 0 0 0 2 
15 2 2.02042 -0.513352 1.50025 0.362358 0 0 0.932039 0.586992 0.586992 0.586992 7 0 0 0 0 0 2 
16 3 0.899581 0.513352 1.50025 0 0.932039 -0.362358 0 0.586992 0.586992 0.586992 7 0 0 0 0 0 2 
17 3 1.28733 0.740124 1.12518 0 0.783327 -0.62161 0 0.586992 0.586992 0.586992 7 0 0 0 0 0 2 
18 3 1.73539 0.70835 0.750123 0 0.564642 -0.825336 0 0.586992 0.586992 0.586992 7 0 0 0 0 0 2 
19 3 2.08726 0.429128 0.375062 0 0.29552 -0.955336 0 0.586992 0.586992 0.586992 7 0 0 0 0 0 2 
20 3 2.22 0 0 0 0 -1 0 0.586992 0.586992 0.586992 7 0 0 0 0 0 2 
ITEM: TIMESTEP
110
ITEM: NUMBER OF ATOMS
20
ITEM: BOX BOUNDS pp pp pp
-1.1500000000000000e+02 1.1500000000000000e+02
-1.1500000000000000e+02 1.1500000000000000e+02
-1.1500000000000000e+02 1.1500000000000000e+02
ITEM: ATOMS id type x y z c_quat[1] c_quat[2] c_quat[3] c_quat[4] c_shape[1] c_shape[2] c_shape[3] vx vy vz angmomx angmomy angmomz mol 
1 2 0 0 0 1 0 0 0 0.586992 0.586992 0.586992 -0.120662 -0.255424 0.213789 0 0 0 1 
2 2 0.132745 -0.429128 0.375062 0.955336 0 0 0.29552 0.586992 0.586992 0.586992 0.0834641 0.238237 -0.202857 0 0 0 1 
3 2 0.484608 -0.70835 0.750123 0.825336 0 0 0.564642 0.586992 0.586992 0.586992 0.0193511 0.135814 -0.116219 0 0 0 1 
4 2 0.932674 -0.740124 1.12518 0.62161 0 0 0.783327 0.586992 0.586992 0.586992 0.101297 0.0443199 0.136614 0 0 0 1 
5 2 1.32042 -0.513352 1.50025 0.362358 0 0 0.932039 0.586992 0.586992 0.586992 0.133566 -0.13011 0.172933 0 0 0 1 
6 3 0.199581 0.513352 1.50025 0 0.932039 -0.362358 0 0.586992 0.586992 0.586992 -0.196419 -0.047807 0.121986 0 0 0 1 
7 3 0.587326 0.740124 1.12518 0 0.783327 -0.62161 0 0.586992 0.586992 0.586992 0.159703 -0.239538 0.0402914 0 0 0 1 
8 3 1.03539 0.70835 0.750123 0 0.564642 -0.825336 0 0.586992 0.586992 0.586992 0.0633523 0.27405 -0.0248899 0 0 0 1 
9 3 1.38726 0.429128 0.375062 0 0.29552 -0.955336 0 0.586992 0.586992 0.586992 0.0454271 -0.0949375 0.00414135 0 0 0 1 
10 3 1.52 0 0 0 0 -1 0 0.586992 0.586992 0.586992 -0.010531 -0.19788 0.304703 0 0 0 1 
11 2 0.77 0 0 1 0 0 0 0.586992 0.586992 0.586992 7 0 0 0 0 0 2 
12 2 0.902745 -0.429128 0.375062 0.955336 0 0 0.29552 0.586992 0.586992 0.586992 7 0 0 0 0 0 2 
13 2 1.25461 -0.70835 0.750123 0.825336 0 0 0.564642 0.586992 0.586992 0.586992 7 0 0 0 0 0 2 
14 2 1.70267 -0.740124 1.12518 0.62161 0 0 0.783327 0.586992 0.586992 0.586992 7 0 0 0 0 0 2 
15 2 2.09042 -0.513352 1.50025 0.362358 0 0 0.932039 0.586992 0.586992 0.586992 7 0 0 0 0 0 2 
16 3 0.969581 0.513352 1.50025 0 0.932039 -0.362358 0 0.586992 0.586992 0.586992 7 0 0 0 0 0 2 
17 3 1.35733 0.740124 1.12518 0 0.783327 -0.62161 0 0.586992 0.586992 0.586992 7 0 0 0 0 0 2 
18 3 1.80539 0.70835 0.750123 0 0.564642 -0.825336 0 0.586992 0.586992 0.586992 7 0 0 0 0 0 2 
19 3 2.15726 0.429128 0.375062 0 0.29552 -0.955336 0 0.586992 0.586992 0.586992 7 0 0 0 0 0 2 
20 3 2.29 0 0 0 0 -1 0 0.586992 0.586992 0.586992 7 0 0 0 0 0 2 
ITEM: TIMESTEP
120
ITEM: NUMBER OF ATOMS
20
ITEM: BOX BOUNDS pp pp pp
-1.1500000000000000e+02 1.1500000000000000e+02
-1.1500000000000000e+02 1.1500000000000000e+02
-1.1500000000000000e+02 1.1500000000000000e+02
ITEM: ATOMS id type x y z c_quat[1] c_quat[2] c_quat[3] c_quat[4] c_shape[1] c_shape[2] c_shape[3] vx vy vz angmomx angmomy angmomz mol 
1 2 0 0 0 1 0 0 0 0.586992 0.586992 0.586992 -0.120662 -0.255424 0.213789 0 0 0 1 
2 2 0.132745 -0.429128 0.375062 0.955336 0 0 0.29552 0.586992 0.586992 0.586992 0.0834641 0.238237 -0.202857 0 0 0 1 
3 2 0.484608 -0.70835 0.750123 0.825336 0 0 0.564642 0.586992 0.586992 0.586992 0.0193511 0.135814 -0.116219 0 0 0 1 
4 2 0.932674 -0.740124 1.12518 0.62161 0 0 0.783327 0.586992 0.586992 0.586992 0.101297 0.0443199 0.136614 0 0 0 1 
5 2 1.32042 -0.513352 1.50025 0.362358 0 0 0.932039 0.586992 0.586992 0.586992 0.133566 -0.13011 0.172933 0 0 0 1 
6 3 0.199581 0.513352 1.50025 0 0.932039 -0.362358 0 0.586992 0.586992 0.586992 -0.196419 -0.047807 0.121986 0 0 0 1 
7 3 0.587326 0.740124 1.12518 0 0.783327 -0.62161 0 0.586992 0.586992 0.586992 0.159703 -0.239538 0.0402914 0 0 0 1 
8 3 1.03539 0.70835 0.750123 0 0.564642 -0.825336 0 0.586992 0.586992 0.586992 0.0633523 0.27405 -0.0248899 0 0 0 1 
9 3 1.38726 0.429128 0.375062 0 0.29552 -0.955336 0 0.586992 0.586992 0.586992 0.0454271 -0.0949375 0.00414135 0 0 0 1 
10 3 1.52 0 0 0 0 -1 0 0.586992 0.586992 0.586992 -0.010531 -0.19788 0.304703 0 0 0 1 
11 2 0.84 0 0 1 0 0 0 0.586992 0.586992 0.586992 7 0 0 0 0 0 2 
12 2 0.972745 -0.429128 0.375062 0.955336 0 0 0.29552 0.586992 0.586992 0.586992 7 0 0 0 0 0 2 