ITEM: TIMESTEP
0
ITEM: NUMBER OF ATOMS
60
ITEM: BOX BOUNDS
-115 115
-115 115
-115 115
ITEM: ATOMS id type x y z c_q[1] c_q[2] c_q[3] c_q[4] c_shape[1] c_shape[2] c_shape[3] vx vy vz angmomx angmomy angmomz mol
1  7  -0.4 0 0 1.0 0.0 0.0 0.0  0.3 0.3 0.3  -0.120662 -0.255424 0.213789 0 0 0 1
2  9  0.34 0 0 1.0 0.0 0.0 0.0  0.1 0.1 0.1  -0.120662 -0.255424 0.213789 0 0 0 1
3 2 0.4 0 0 1 0 0 0  0.4 0.3 0.1  -0.120662 -0.255424 0.213789 0 0 0 1
4  7  -0.197389 -0.654985 0.375062 1.0 0.0 0.0 0.0  0.3 0.3 0.3  0.0834641 0.238237 -0.202857 0 0 0 1
5  9  0.413359 -0.23715 0.375062 1.0 0.0 0.0 0.0  0.1 0.1 0.1  0.0834641 0.238237 -0.202857 0 0 0 1
6 2 0.462879 -0.203271 0.375062 0.955336 0 0 0.29552  0.4 0.3 0.1  0.0834641 0.238237 -0.202857 0 0 0 1
7  7  0.339664 -1.08117 0.750123 1.0 0.0 0.0 0.0  0.3 0.3 0.3  0.0193511 0.135814 -0.116219 0 0 0 1
8  9  0.60781 -0.391457 0.750123 1.0 0.0 0.0 0.0  0.1 0.1 0.1  0.0193511 0.135814 -0.116219 0 0 0 1
9 2 0.629552 -0.335535 0.750123 0.825336 0 0 0.564642  0.4 0.3 0.1  0.0193511 0.135814 -0.116219 0 0 0 1
10  7  1.02355 -1.12966 1.12518 1.0 0.0 0.0 0.0  0.3 0.3 0.3  0.101297 0.0443199 0.136614 0 0 0 1
11  9  0.855425 -0.409016 1.12518 1.0 0.0 0.0 0.0  0.1 0.1 0.1  0.101297 0.0443199 0.136614 0 0 0 1
12 2 0.841793 -0.350585 1.12518 0.62161 0 0 0.783327  0.4 0.3 0.1  0.101297 0.0443199 0.136614 0 0 0 1
13  7  1.61538 -0.783537 1.50025 1.0 0.0 0.0 0.0  0.3 0.3 0.3  0.133566 -0.13011 0.172933 0 0 0 1
14  9  1.06971 -0.283694 1.50025 1.0 0.0 0.0 0.0  0.1 0.1 0.1  0.133566 -0.13011 0.172933 0 0 0 1
15 2 1.02546 -0.243167 1.50025 0.362358 0 0 0.932039  0.4 0.3 0.1  0.133566 -0.13011 0.172933 0 0 0 1
16  7  -0.0953763 0.783537 1.50025 1.0 0.0 0.0 0.0  0.3 0.3 0.3  -0.196419 -0.047807 0.121986 0 0 0 1
17  9  0.450295 0.283694 1.50025 1.0 0.0 0.0 0.0  0.1 0.1 0.1  -0.196419 -0.047807 0.121986 0 0 0 1
18 3 0.494538 0.243167 1.50025 0 0.932039 -0.362358 0  0.4 0.3 0.1  -0.196419 -0.047807 0.121986 0 0 0 1
19  7  0.496445 1.12966 1.12518 1.0 0.0 0.0 0.0  0.3 0.3 0.3  0.159703 -0.239538 0.0402914 0 0 0 1
20  9  0.664575 0.409016 1.12518 1.0 0.0 0.0 0.0  0.1 0.1 0.1  0.159703 -0.239538 0.0402914 0 0 0 1
21 3 0.678207 0.350585 1.12518 0 0.783327 -0.62161 0  0.4 0.3 0.1  0.159703 -0.239538 0.0402914 0 0 0 1
22  7  1.18033 1.08117 0.750123 1.0 0.0 0.0 0.0  0.3 0.3 0.3  0.0633523 0.27405 -0.0248899 0 0 0 1
23  9  0.912188 0.391457 0.750123 1.0 0.0 0.0 0.0  0.1 0.1 0.1  0.0633523 0.27405 -0.0248899 0 0 0 1
24 3 0.890446 0.335535 0.750123 0 0.564642 -0.825336 0  0.4 0.3 0.1  0.0633523 0.27405 -0.0248899 0 0 0 1
25  7  1.71739 0.654985 0.375062 1.0 0.0 0.0 0.0  0.3 0.3 0.3  0.0454271 -0.0949375 0.00414135 0 0 0 1
26  9  1.10665 0.23715 0.375062 1.0 0.0 0.0 0.0  0.1 0.1 0.1  0.0454271 -0.0949375 0.00414135 0 0 0 1
27 3 1.05713 0.203271 0.375062 0 0.29552 -0.955336 0  0.4 0.3 0.1  0.0454271 -0.0949375 0.00414135 0 0 0 1
28  7  1.92 0 0 1.0 0.0 0.0 0.0  0.3 0.3 0.3  -0.010531 -0.19788 0.304703 0 0 0 1
29  9  1.18 0 0 1.0 0.0 0.0 0.0  0.1 0.1 0.1  -0.010531 -0.19788 0.304703 0 0 0 1
30 3 1.12 0 0 0 0 -1 0  0.4 0.3 0.1  -0.010531 -0.19788 0.304703 0 0 0 1
31  7  -0.4 0 0 1.0 0.0 0.0 0.0  0.3 0.3 0.3  0.174671 -0.0492693 -0.332315 0 0 0 2
32  9  0.34 0 0 1.0 0.0 0.0 0.0  0.1 0.1 0.1  0.174671 -0.0492693 -0.332315 0 0 0 2
33 2 0.4 0 0 1 0 0 0  0.4 0.3 0.1  0.174671 -0.0492693 -0.332315 0 0 0 2
34  7  -0.197389 -0.654985 0.375062 1.0 0.0 0.0 0.0  0.3 0.3 0.3  -0.100483 -0.0403595 0.18198 0 0 0 2
35  9  0.413359 -0.23715 0.375062 1.0 0.0 0.0 0.0  0.1 0.1 0.1  -0.100483 -0.0403595 0.18198 0 0 0 2
36 2 0.462879 -0.203271 0.375062 0.955336 0 0 0.29552  0.4 0.3 0.1  -0.100483 -0.0403595 0.18198 0 0 0 2
37  7  0.339664 -1.08117 0.750123 1.0 0.0 0.0 0.0  0.3 0.3 0.3  -0.183279 -0.314096 -0.311522 0 0 0 2
38  9  0.60781 -0.391457 0.750123 1.0 0.0 0.0 0.0  0.1 0.1 0.1  -0.183279 -0.314096 -0.311522 0 0 0 2
39 2 0.629552 -0.335535 0.750123 0.825336 0 0 0.564642  0.4 0.3 0.1  -0.183279 -0.314096 -0.311522 0 0 0 2
40  7  1.02355 -1.12966 1.12518 1.0 0.0 0.0 0.0  0.3 0.3 0.3  -0.0934858 0.154055 0.026947 0 0 0 2
41  9  0.855425 -0.409016 1.12518 1.0 0.0 0.0 0.0  0.1 0.1 0.1  -0.0934858 0.154055 0.026947 0 0 0 2
42 2 0.841793 -0.350585 1.12518 0.62161 0 0 0.783327  0.4 0.3 0.1  -0.0934858 0.154055 0.026947 0 0 0 2
43  7  1.61538 -0.783537 1.50025 1.0 0.0 0.0 0.0  0.3 0.3 0.3  0.180908 -0.161761 0.0933322 0 0 0 2
44  9  1.06971 -0.283694 1.50025 1.0 0.0 0.0 0.0  0.1 0.1 0.1  0.180908 -0.161761 0.0933322 0 0 0 2
45 2 1.02546 -0.243167 1.50025 0.362358 0 0 0.932039  0.4 0.3 0.1  0.180908 -0.161761 0.0933322 0 0 0 2
46  7  -0.0953763 0.783537 1.50025 1.0 0.0 0.0 0.0  0.3 0.3 0.3  -0.206047 0.174799 0.202841 0 0 0 2
47  9  0.450295 0.283694 1.50025 1.0 0.0 0.0 0.0  0.1 0.1 0.1  -0.206047 0.174799 0.202841 0 0 0 2
48 3 0.494538 0.243167 1.50025 0 0.932039 -0.362358 0  0.4 0.3 0.1  -0.206047 0.174799 0.202841 0 0 0 2
49  7  0.496445 1.12966 1.12518 1.0 0.0 0.0 0.0  0.3 0.3 0.3  0.159365 0.104977 -0.195292 0 0 0 2
50  9  0.664575 0.409016 1.12518 1.0 0.0 0.0 0.0  0.1 0.1 0.1  0.159365 0.104977 -0.195292 0 0 0 2
51 3 0.678207 0.350585 1.12518 0 0.783327 -0.62161 0  0.4 0.3 0.1  0.159365 0.104977 -0.195292 0 0 0 2
52  7  1.18033 1.08117 0.750123 1.0 0.0 0.0 0.0  0.3 0.3 0.3  -0.0680818 0.119019 0.185424 0 0 0 2
53  9  0.912188 0.391457 0.750123 1.0 0.0 0.0 0.0  0.1 0.1 0.1  -0.0680818 0.119019 0.185424 0 0 0 2
54 3 0.890446 0.335535 0.750123 0 0.564642 -0.825336 0  0.4 0.3 0.1  -0.0680818 0.119019 0.185424 0 0 0 2
55  7  1.71739 0.654985 0.375062 1.0 0.0 0.0 0.0  0.3 0.3 0.3  0.141391 0.243555 -0.247507 0 0 0 2
56  9  1.10665 0.23715 0.375062 1.0 0.0 0.0 0.0  0.1 0.1 0.1  0.141391 0.243555 -0.247507 0 0 0 2
57 3 1.05713 0.203271 0.375062 0 0.29552 -0.955336 0  0.4 0.3 0.1  0.141391 0.243555 -0.247507 0 0 0 2
58  7  1.92 0 0 1.0 0.0 0.0 0.0  0.3 0.3 0.3  -0.283509 0.0423569 -0.254381 0 0 0 2
59  9  1.18 0 0 1.0 0.0 0.0 0.0  0.1 0.1 0.1  -0.283509 0.0423569 -0.254381 0 0 0 2
60 3 1.12 0 0 0 0 -1 0  0.4 0.3 0.1  -0.283509 0.0423569 -0.254381 0 0 0 2
ITEM: TIMESTEP
10
ITEM: NUMBER OF ATOMS
60
ITEM: BOX BOUNDS
-115 115
-115 115
-115 115
ITEM: ATOMS id type x y z c_q[1] c_q[2] c_q[3] c_q[4] c_shape[1] c_shape[2] c_shape[3] vx vy vz angmomx angmomy angmomz mol
1  7  -0.4 0 0 1.0 0.0 0.0 0.0  0.3 0.3 0.3  -0.120662 -0.255424 0.213789 0 0 0 1
2  9  0.34 0 0 1.0 0.0 0.0 0.0  0.1 0.1 0.1  -0.120662 -0.255424 0.213789 0 0 0 1
3 2 0.4 0 0 1 0 0 0  0.4 0.3 0.1  -0.120662 -0.255424 0.213789 0 0 0 1
4  7  -0.197389 -0.654985 0.375062 1.0 0.0 0.0 0.0  0.3 0.3 0.3  0.0834641 0.238237 -0.202857 0 0 0 1
5  9  0.413359 -0.23715 0.375062 1.0 0.0 0.0 0.0  0.1 0.1 0.1  0.0834641 0.238237 -0.202857 0 0 0 1
6 2 0.462879 -0.203271 0.375062 0.955336 0 0 0.29552  0.4 0.3 0.1  0.0834641 0.238237 -0.202857 0 0 0 1
7  7  0.339664 -1.08117 0.750123 1.0 0.0 0.0 0.0  0.3 0.3 0.3  0.0193511 0.135814 -0.116219 0 0 0 1
8  9  0.60781 -0.391457 0.750123 1.0 0.0 0.0 0.0  0.1 0.1 0.1  0.0193511 0.135814 -0.116219 0 0 0 1
9 2 0.629552 -0.335535 0.750123 0.825336 0 0 0.564642  0.4 0.3 0.1  0.0193511 0.135814 -0.116219 0 0 0 1
10  7  1.02355 -1.12966 1.12518 1.0 0.0 0.0 0.0  0.3 0.3 0.3  0.101297 0.0443199 0.136614 0 0 0 1
11  9  0.855425 -0.409016 1.12518 1.0 0.0 0.0 0.0  0.1 0.1 0.1  0.101297 0.0443199 0.136614 0 0 0 1
12 2 0.841793 -0.350585 1.12518 0.62161 0 0 0.783327  0.4 0.3 0.1  0.101297 0.0443199 0.136614 0 0 0 1
13  7  1.61538 -0.783537 1.50025 1.0 0.0 0.0 0.0  0.3 0.3 0.3  0.133566 -0.13011 0.172933 0 0 0 1
14  9  1.06971 -0.283694 1.50025 1.0 0.0 0.0 0.0  0.1 0.1 0.1  0.133566 -0.13011 0.172933 0 0 0 1
15 2 1.02546 -0.243167 1.50025 0.362358 0 0 0.932039  0.4 0.3 0.1  0.133566 -0.13011 0.172933 0 0 0 1
16  7  -0.0953763 0.783537 1.50025 1.0 0.0 0.0 0.0  0.3 0.3 0.3  -0.196419 -0.047807 0.121986 0 0 0 1
17  9  0.450295 0.283694 1.50025 1.0 0.0 0.0 0.0  0.1 0.1 0.1  -0.196419 -0.047807 0.121986 0 0 0 1
18 3 0.494538 0.243167 1.50025 0 0.932039 -0.362358 0  0.4 0.3 0.1  -0.196419 -0.047807 0.121986 0 0 0 1
19  7  0.496445 1.12966 1.12518 1.0 0.0 0.0 0.0  0.3 0.3 0.3  0.159703 -0.239538 0.0402914 0 0 0 1
20  9  0.664575 0.409016 1.12518 1.0 0.0 0.0 0.0  0.1 0.1 0.1  0.159703 -0.239538 0.0402914 0 0 0 1
21 3 0.678207 0.350585 1.12518 0 0.783327 -0.62161 0  0.4 0.3 0.1  0.159703 -0.239538 0.0402914 0 0 0 1
22  7  1.18033 1.08117 0.750123 1.0 0.0 0.0 0.0  0.3 0.3 0.3  0.0633523 0.27405 -0.0248899 0 0 0 1
23  9  0.912188 0.391457 0.750123 1.0 0.0 0.0 0.0  0.1 0.1 0.1  0.0633523 0.27405 -0.0248899 0 0 0 1
24 3 0.890446 0.335535 0.750123 0 0.564642 -0.825336 0  0.4 0.3 0.1  0.0633523 0.27405 -0.0248899 0 0 0 1
25  7  1.71739 0.654985 0.375062 1.0 0.0 0.0 0.0  0.3 0.3 0.3  0.0454271 -0.0949375 0.00414135 0 0 0 1
26  9  1.10665 0.23715 0.375062 1.0 0.0 0.0 0.0  0.1 0.1 0.1  0.0454271 -0.0949375 0.00414135 0 0 0 1
27 3 1.05713 0.203271 0.375062 0 0.29552 -0.955336 0  0.4 0.3 0.1  0.0454271 -0.0949375 0.00414135 0 0 0 1
28  7  1.92 0 0 1.0 0.0 0.0 0.0  0.3 0.3 0.3  -0.010531 -0.19788 0.304703 0 0 0 1
29  9  1.18 0 0 1.0 0.0 0.0 0.0  0.1 0.1 0.1  -0.010531 -0.19788 0.304703 0 0 0 1
30 3 1.12 0 0 0 0 -1 0  0.4 0.3 0.1  -0.010531 -0.19788 0.304703 0 0 0 1
31  7  -0.33 0 0 1.0 0.0 0.0 0.0  0.3 0.3 0.3  7 0 0 0 0 0 2
32  9  0.41 0 0 1.0 0.0 0.0 0.0  0.1 0.1 0.1  7 0 0 0 0 0 2
33 2 0.47 0 0 1 0 0 0  0.4 0.3 0.1  7 0 0 0 0 0 2
34  7  -0.127389 -0.654985 0.375062 1.0 0.0 0.0 0.0  0.3 0.3 0.3  7 0 0 0 0 0 2
35  9  0.483359 -0.23715 0.375062 1.0 0.0 0.0 0.0  0.1 0.1 0.1  7 0 0 0 0 0 2
36 2 0.532879 -0.203271 0.375062 0.955336 0 0 0.29552  0.4 0.3 0.1  7 0 0 0 0 0 2
37  7  0.409664 -1.08117 0.750123 1.0 0.0 0.0 0.0  0.3 0.3 0.3  7 0 0 0 0 0 2
38  9  0.67781 -0.391457 0.750123 1.0 0.0 0.0 0.0  0.1 0.1 0.1  7 0 0 0 0 0 2
39 2 0.699552 -0.335535 0.750123 0.825336 0 0 0.564642  0.4 0.3 0.1  7 0 0 0 0 0 2
40  7  1.09355 -1.12966 1.12518 1.0 0.0 0.0 0.0  0.3 0.3 0.3  7 0 0 0 0 0 2
41  9  0.925421 -0.409016 1.12518 1.0 0.0 0.0 0.0  0.1 0.1 0.1  7 0 0 0 0 0 2
42 2 0.911789 -0.350585 1.12518 0.62161 0 0 0.783327  0.4 0.3 0.1  7 0 0 0 0 0 2
43  7  1.68538 -0.783537 1.50025 1.0 0.0 0.0 0.0  0.3 0.3 0.3  7 0 0 0 0 0 2
44  9  1.13971 -0.283694 1.50025 1.0 0.0 0.0 0.0  0.1 0.1 0.1  7 0 0 0 0 0 2
45 2 1.09546 -0.243167 1.50025 0.362358 0 0 0.932039  0.4 0.3 0.1  7 0 0 0 0 0 2
46  7  -0.0253763 0.783537 1.50025 1.0 0.0 0.0 0.0  0.3 0.3 0.3  7 0 0 0 0 0 2
47  9  0.520295 0.283694 1.50025 1.0 0.0 0.0 0.0  0.1 0.1 0.1  7 0 0 0 0 0 2
48 3 0.564538 0.243167 1.50025 0 0.932039 -0.362358 0  0.4 0.3 0.1  7 0 0 0 0 0 2
49  7  0.566445 1.12966 1.12518 1.0 0.0 0.0 0.0  0.3 0.3 0.3  7 0 0 0 0 0 2
50  9  0.734575 0.409016 1.12518 1.0 0.0 0.0 0.0  0.1 0.1 0.1  7 0 0 0 0 0 2
51 3 0.748207 0.350585 1.12518 0 0.783327 -0.62161 0  0.4 0.3 0.1  7 0 0 0 0 0 2
52  7  1.25033 1.08117 0.750123 1.0 0.0 0.0 0.0  0.3 0.3 0.3  7 0 0 0 0 0 2
53  9  0.982188 0.391457 0.750123 1.0 0.0 0.0 0.0  0.1 0.1 0.1  7 0 0 0 0 0 2
54 3 0.960446 0.335535 0.750123 0 0.564642 -0.825336 0  0.4 0.3 0.1  7 0 0 0 0 0 2
55  7  1.78739 0.654985 0.375062 1.0 0.0 0.0 0.0  0.3 0.3 0.3  7 0 0 0 0 0 2
56  9  1.17665 0.23715 0.375062 1.0 0.0 0.0 0.0  0.1 0.1 0.1  7 0 0 0 0 0 2
57 3 1.12713 0.203271 0.375062 0 0.29552 -0.955336 0  0.4 0.3 0.1  7 0 0 0 0 0 2
58  7  1.99 0 0 1.0 0.0 0.0 0.0  0.3 0.3 0.3  7 0 0 0 0 0 2
59  9  1.25 0 0 1.0 0.0 0.0 0.0  0.1 0.1 0.1  7 0 0 0 0 0 2
60 3 1.19 0 0 0 0 -1 0  0.4 0.3 0.1  7 0 0 0 0 0 2
ITEM: TIMESTEP
20
ITEM: NUMBER OF ATOMS
60
ITEM: BOX BOUNDS
-115 115
-115 115
-115 115
ITEM: ATOMS id type x y z c_q[1] c_q[2] c_q[3] c_q[4] c_shape[1] c_shape[2] c_shape[3] vx vy vz angmomx angmomy angmomz mol
1  7  -0.4 0 0 1.0 0.0 0.0 0.0  0.3 0.3 0.3  -0.120662 -0.255424 0.213789 0 0 0 1
2  9  0.34 0 0 1.0 0.0 0.0 0.0  0.1 0.1 0.1  -0.120662 -0.255424 0.213789 0 0 0 1
3 2 0.4 0 0 1 0 0 0  0.4 0.3 0.1  -0.120662 -0.255424 0.213789 0 0 0 1
4  7  -0.197389 -0.654985 0.375062 1.0 0.0 0.0 0.0  0.3 0.3 0.3  0.0834641 0.238237 -0.202857 0 0 0 1
5  9  0.413359 -0.23715 0.375062 1.0 0.0 0.0 0.0  0.1 0.1 0.1  0.0834641 0.238237 -0.202857 0 0 0 1
6 2 0.462879 -0.203271 0.375062 0.955336 0 0 0.29552  0.4 0.3 0.1  0.0834641 0.238237 -0.202857 0 0 0 1
7  7  0.339664 -1.08117 0.750123 1.0 0.0 0.0 0.0  0.3 0.3 0.3  0.0193511 0.135814 -0.116219 0 0 0 1
8  9  0.60781 -0.391457 0.750123 1.0 0.0 0.0 0.0  0.1 0.1 0.1  0.0193511 0.135814 -0.116219 0 0 0 1
9 2 0.629552 -0.335535 0.750123 0.825336 0 0 0.564642  0.4 0.3 0.1  0.0193511 0.135814 -0.116219 0 0 0 1
10  7  1.02355 -1.12966 1.12518 1.0 0.0 0.0 0.0  0.3 0.3 0.3  0.101297 0.0443199 0.136614 0 0 0 1
11  9  0.855425 -0.409016 1.12518 1.0 0.0 0.0 0.0  0.1 0.1 0.1  0.101297 0.0443199 0.136614 0 0 0 1
12 2 0.841793 -0.350585 1.12518 0.62161 0 0 0.783327  0.4 0.3 0.1  0.101297 0.0443199 0.136614 0 0 0 1
13  7  1.61538 -0.783537 1.50025 1.0 0.0 0.0 0.0  0.3 0.3 0.3  0.133566 -0.13011 0.172933 0 0 0 1
14  9  1.06971 -0.283694 1.50025 1.0 0.0 0.0 0.0  0.1 0.1 0.1  0.133566 -0.13011 0.172933 0 0 0 1
15 2 1.02546 -0.243167 1.50025 0.362358 0 0 0.932039  0.4 0.3 0.1  0.133566 -0.13011 0.172933 0 0 0 1
16  7  -0.0953763 0.783537 1.50025 1.0 0.0 0.0 0.0  0.3 0.3 0.3  -0.196419 -0.047807 0.121986 0 0 0 1
17  9  0.450295 0.283694 1.50025 1.0 0.0 0.0 0.0  0.1 0.1 0.1  -0.196419 -0.047807 0.121986 0 0 0 1
18 3 0.494538 0.243167 1.50025 0 0.932039 -0.362358 0  0.4 0.3 0.1  -0.196419 -0.047807 0.121986 0 0 0 1
19  7  0.496445 1.12966 1.12518 1.0 0.0 0.0 0.0  0.3 0.3 0.3  0.159703 -0.239538 0.0402914 0 0 0 1
20  9  0.664575 0.409016 1.12518 1.0 0.0 0.0 0.0  0.1 0.1 0.1  0.159703 -0.239538 0.0402914 0 0 0 1
21 3 0.678207 0.350585 1.12518 0 0.783327 -0.62161 0  0.4 0.3 0.1  0.159703 -0.239538 0.0402914 0 0 0 1
22  7  1.18033 1.08117 0.750123 1.0 0.0 0.0 0.0  0.3 0.3 0.3  0.0633523 0.27405 -0.0248899 0 0 0 1
23  9  0.912188 0.391457 0.750123 1.0 0.0 0.0 0.0  0.1 0.1 0.1  0.0633523 0.27405 -0.0248899 0 0 0 1
24 3 0.890446 0.335535 0.750123 0 0.564642 -0.825336 0  0.4 0.3 0.1  0.0633523 0.27405 -0.0248899 0 0 0 1
25  7  1.71739 0.654985 0.375062 1.0 0.0 0.0 0.0  0.3 0.3 0.3  0.0454271 -0.0949375 0.00414135 0 0 0 1
26  9  1.10665 0.23715 0.375062 1.0 0.0 0.0 0.0  0.1 0.1 0.1  0.0454271 -0.0949375 0.00414135 0 0 0 1
27 3 1.05713 0.203271 0.375062 0 0.29552 -0.955336 0  0.4 0.3 0.1  0.0454271 -0.0949375 0.00414135 0 0 0 1
28  7  1.92 0 0 1.0 0.0 0.0 0.0  0.3 0.3 0.3  -0.010531 -0.19788 0.304703 0 0 0 1
29  9  1.18 0 0 1.0 0.0 0.0 0.0  0.1 0.1 0.1  -0.010531 -0.19788 0.304703 0 0 0 1
30 3 1.12 0 0 0 0 -1 0  0.4 0.3 0.1  -0.010531 -0.19788 0.304703 0 0 0 1
31  7  -0.26 0 0 1.0 0.0 0.0 0.0  0.3 0.3 0.3  7 0 0 0 0 0 2
32  9  0.48 0 0 1.0 0.0 0.0 0.0  0.1 0.1 0.1  7 0 0 0 0 0 2
33 2 0.54 0 0 1 0 0 0  0.4 0.3 0.1  7 0 0 0 0 0 2
34  7  -0.0573893 -0.654985 0.375062 1.0 0.0 0.0 0.0  0.3 0.3 0.3  7 0 0 0 0 0 2
35  9  0.553359 -0.23715 0.375062 1.0 0.0 0.0 0.0  0.1 0.1 0.1  7 0 0 0 0 0 2
36 2 0.602879 -0.203271 0.375062 0.955336 0 0 0.29552  0.4 0.3 0.1  7 0 0 0 0 0 2
37  7  0.479664 -1.08117 0.750123 1.0 0.0 0.0 0.0  0.3 0.3 0.3  7 0 0 0 0 0 2
38  9  0.74781 -0.391457 0.750123 1.0 0.0 0.0 0.0  0.1 0.1 0.1  7 0 0 0 0 0 2
39 2 0.769552 -0.335535 0.750123 0.825336 0 0 0.564642  0.4 0.3 0.1  7 0 0 0 0 0 2
40  7  1.16355 -1.12966 1.12518 1.0 0.0 0.0 0.0  0.3 0.3 0.3  7 0 0 0 0 0 2
41  9  0.995421 -0.409016 1.12518 1.0 0.0 0.0 0.0  0.1 0.1 0.1  7 0 0 0 0 0 2
42 2 0.981789 -0.350585 1.12518 0.62161 0 0 0.783327  0.4 0.3 0.1  7 0 0 0 0 0 2
43  7  1.75538 -0.783537 1.50025 1.0 0.0 0.0 0.0  0.3 0.3 0.3  7 0 0 0 0 0 2
44  9  1.20971 -0.283694 1.50025 1.0 0.0 0.0 0.0  0.1 0.1 0.1  7 0 0 0 0 0 2
45 2 1.16546 -0.243167 1.50025 0.362358 0 0 0.932039  0.4 0.3 0.1  7 0 0 0 0 0 2
46  7  0.0446237 0.783537 1.50025 1.0 0.0 0.0 0.0  0.3 0.3 0.3  7 0 0 0 0 0 2
47  9  0.590295 0.283694 1.50025 1.0 0.0 0.0 0.0  0.1 0.1 0.1  7 0 0 0 0 0 2
48 3 0.634538 0.243167 1.50025 0 0.932039 -0.362358 0  0.4 0.3 0.1  7 0 0 0 0 0 2
49  7  0.636445 1.12966 1.12518 1.0 0.0 0.0 0.0  0.3 0.3 0.3  7 0 0 0 0 0 2
50  9  0.804575 0.409016 1.12518 1.0 0.0 0.0 0.0  0.1 0.1 0.1  7 0 0 0 0 0 2
51 3 0.818207 0.350585 1.12518 0 0.783327 -0.62161 0  0.4 0.3 0.1  7 0 0 0 0 0 2
52  7  1.32033 1.08117 0.750123 1.0 0.0 0.0 0.0  0.3 0.3 0.3  7 0 0 0 0 0 2
53  9  1.05219 0.391457 0.750123 1.0 0.0 0.0 0.0  0.1 0.1 0.1  7 0 0 0 0 0 2
54 3 1.03045 0.335535 0.750123 0 0.564642 -0.825336 0  0.4 0.3 0.1  7 0 0 0 0 0 2
55  7  1.85739 0.654985 0.375062 1.0 0.0 0.0 0.0  0.3 0.3 0.3  7 0 0 0 0 0 2
56  9  1.24665 0.23715 0.375062 1.0 0.0 0.0 0.0  0.1 0.1 0.1  7 0 0 0 0 0 2
57 3 1.19713 0.203271 0.375062 0 0.29552 -0.955336 0  0.4 0.3 0.1  7 0 0 0 0 0 2
58  7  2.06 0 0 1.0 0.0 0.0 0.0  0.3 0.3 0.3  7 0 0 0 0 0 2
59  9  1.32 0 0 1.0 0.0 0.0 0.0  0.1 0.1 0.1  7 0 0 0 0 0 2
60 3 1.26 0 0 0 0 -1 0  0.4 0.3 0.1  7 0 0 0 0 0 2
ITEM: TIMESTEP
30
ITEM: NUMBER OF ATOMS
60
ITEM: BOX BOUNDS
-115 115
-115 115
-115 115
ITEM: ATOMS id type x y z c_q[1] c_q[2] c_q[3] c_q[4] c_shape[1] c_shape[2] c_shape[3] vx vy vz angmomx angmomy angmomz mol
1  7  -0.4 0 0 1.0 0.0 0.0 0.0  0.3 0.3 0.3  -0.120662 -0.255424 0.213789 0 0 0 1
2  9  0.34 0 0 1.0 0.0 0.0 0.0  0.1 0.1 0.1  -0.120662 -0.255424 0.213789 0 0 0 1
3 2 0.4 0 0 1 0 0 0  0.4 0.3 0.1  -0.120662 -0.255424 0.213789 0 0 0 1
4  7  -0.197389 -0.654985 0.375062 1.0 0.0 0.0 0.0  0.3 0.3 0.3  0.0834641 0.238237 -0.202857 0 0 0 1
5  9  0.413359 -0.23715 0.375062 1.0 0.0 0.0 0.0  0.1 0.1 0.1  0.0834641 0.238237 -0.202857 0 0 0 1
6 2 0.462879 -0.203271 0.375062 0.955336 0 0 0.29552  0.4 0.3 0.1  0.0834641 0.238237 -0.202857 0 0 0 1
7  7  0.339664 -1.08117 0.750123 1.0 0.0 0.0 0.0  0.3 0.3 0.3  0.0193511 0.135814 -0.116219 0 0 0 1
8  9  0.60781 -0.391457 0.750123 1.0 0.0 0.0 0.0  0.1 0.1 0.1  0.0193511 0.135814 -0.116219 0 0 0 1
9 2 0.629552 -0.335535 0.750123 0.825336 0 0 0.564642  0.4 0.3 0.1  0.0193511 0.135814 -0.116219 0 0 0 1
10  7  1.02355 -1.12966 1.12518 1.0 0.0 0.0 0.0  0.3 0.3 0.3  0.101297 0.0443199 0.136614 0 0 0 1
11  9  0.855425 -0.409016 1.12518 1.0 0.0 0.0 0.0  0.1 0.1 0.1  0.101297 0.0443199 0.136614 0 0 0 1
12 2 0.841793 -0.350585 1.12518 0.62161 0 0 0.783327  0.4 0.3 0.1  0.101297 0.0443199 0.136614 0 0 0 1
13  7  1.61538 -0.783537 1.50025 1.0 0.0 0.0 0.0  0.3 0.3 0.3  0.133566 -0.13011 0.172933 0 0 0 1
14  9  1.06971 -0.283694 1.50025 1.0 0.0 0.0 0.0  0.1 0.1 0.1  0.133566 -0.13011 0.172933 0 0 0 1
15 2 1.02546 -0.243167 1.50025 0.362358 0 0 0.932039  0.4 0.3 0.1  0.133566 -0.13011 0.172933 0 0 0 1
16  7  -0.0953763 0.783537 1.50025 1.0 0.0 0.0 0.0  0.3 0.3 0.3  -0.196419 -0.047807 0.121986 0 0 0 1
17  9  0.450295 0.283694 1.50025 1.0 0.0 0.0 0.0  0.1 0.1 0.1  -0.196419 -0.047807 0.121986 0 0 0 1
18 3 0.494538 0.243167 1.50025 0 0.932039 -0.362358 0  0.4 0.3 0.1  -0.196419 -0.047807 0.121986 0 0 0 1
19  7  0.496445 1.12966 1.12518 1.0 0.0 0.0 0.0  0.3 0.3 0.3  0.159703 -0.239538 0.0402914 0 0 0 1
20  9  0.664575 0.409016 1.12518 1.0 0.0 0.0 0.0  0.1 0.1 0.1  0.159703 -0.239538 0.0402914 0 0 0 1
21 3 0.678207 0.350585 1.12518 0 0.783327 -0.62161 0  0.4 0.3 0.1  0.159703 -0.239538 0.0402914 0 0 0 1
22  7  1.18033 1.08117 0.750123 1.0 0.0 0.0 0.0  0.3 0.3 0.3  0.0633523 0.27405 -0.0248899 0 0 0 1
23  9  0.912188 0.391457 0.750123 1.0 0.0 0.0 0.0  0.1 0.1 0.1  0.0633523 0.27405 -0.0248899 0 0 0 1
24 3 0.890446 0.335535 0.750123 0 0.564642 -0.825336 0  0.4 0.3 0.1  0.0633523 0.27405 -0.0248899 0 0 0 1
25  7  1.71739 0.654985 0.375062 1.0 0.0 0.0 0.0  0.3 0.3 0.3  0.0454271 -0.0949375 0.00414135 0 0 0 1
26  9  1.10665 0.23715 0.375062 1.0 0.0 0.0 0.0  0.1 0.1 0.1  0.0454271 -0.0949375 0.00414135 0 0 0 1
27 3 1.05713 0.203271 0.375062 0 0.29552 -0.955336 0  0.4 0.3 0.1  0.0454271 -0.0949375 0.00414135 0 0 0 1
28  7  1.92 0 0 1.0 0.0 0.0 0.0  0.3 0.3 0.3  -0.010531 -0.19788 0.304703 0 0 0 1
29  9  1.18 0 0 1.0 0.0 0.0 0.0  0.1 0.1 0.1  -0.010531 -0.19788 0.304703 0 0 0 1
30 3 1.12 0 0 0 0 -1 0  0.4 0.3 0.1  -0.010531 -0.19788 0.304703 0 0 0 1
31  7  -0.19 0 0 1.0 0.0 0.0 0.0  0.3 0.3 0.3  7 0 0 0 0 0 2
32  9  0.55 0 0 1.0 0.0 0.0 0.0  0.1 0.1 0.1  7 0 0 0 0 0 2
33 2 0.61 0 0 1 0 0 0  0.4 0.3 0.1  7 0 0 0 0 0 2
34  7  0.0126107 -0.654985 0.375062 1.0 0.0 0.0 0.0  0.3 0.3 0.3  7 0 0 0 0 0 2
35  9  0.623359 -0.23715 0.375062 1.0 0.0 0.0 0.0  0.1 0.1 0.1  7 0 0 0 0 0 2
36 2 0.672879 -0.203271 0.375062 0.955336 0 0 0.29552  0.4 0.3 0.1  7 0 0 0 0 0 2
37  7  0.549664 -1.08117 0.750123 1.0 0.0 0.0 0.0  0.3 0.3 0.3  7 0 0 0 0 0 2
38  9  0.81781 -0.391457 0.750123 1.0 0.0 0.0 0.0  0.1 0.1 0.1  7 0 0 0 0 0 2
39 2 0.839552 -0.335535 0.750123 0.825336 0 0 0.564642  0.4 0.3 0.1  7 0 0 0 0 0 2
40  7  1.23355 -1.12966 1.12518 1.0 0.0 0.0 0.0  0.3 0.3 0.3  7 0 0 0 0 0 2
41  9  1.06542 -0.409016 1.12518 1.0 0.0 0.0 0.0  0.1 0.1 0.1  7 0 0 0 0 0 2
42 2 1.05179 -0.350585 1.12518 0.62161 0 0 0.783327  0.4 0.3 0.1  7 0 0 0 0 0 2
43  7  1.82538 -0.783537 1.50025 1.0 0.0 0.0 0.0  0.3 0.3 0.3  7 0 0 0 0 0 2
44  9  1.27971 -0.283694 1.50025 1.0 0.0 0.0 0.0  0.1 0.1 0.1  7 0 0 0 0 0 2
45 2 1.23546 -0.243167 1.50025 0.362358 0 0 0.932039  0.4 0.3 0.1  7 0 0 0 0 0 2
46  7  0.114624 0.783537 1.50025 1.0 0.0 0.0 0.0  0.3 0.3 0.3  7 0 0 0 0 0 2
47  9  0.660295 0.283694 1.50025 1.0 0.0 0.0 0.0  0.1 0.1 0.1  7 0 0 0 0 0 2
48 3 0.704538 0.243167 1.50025 0 0.932039 -0.362358 0  0.4 0.3 0.1  7 0 0 0 0 0 2
49  7  0.706445 1.12966 1.12518 1.0 0.0 0.0 0.0  0.3 0.3 0.3  7 0 0 0 0 0 2
50  9  0.874575 0.409016 1.12518 1.0 0.0 0.0 0.0  0.1 0.1 0.1  7 0 0 0 0 0 2
51 3 0.888207 0.350585 1.12518 0 0.783327 -0.62161 0  0.4 0.3 0.1  7 0 0 0 0 0 2
52  7  1.39033 1.08117 0.750123 1.0 0.0 0.0 0.0  0.3 0.3 0.3  7 0 0 0 0 0 2
53  9  1.12219 0.391457 0.750123 1.0 0.0 0.0 0.0  0.1 0.1 0.1  7 0 0 0 0 0 2
54 3 1.10045 0.335535 0.750123 0 0.564642 -0.825336 0  0.4 0.3 0.1  7 0 0 0 0 0 2
55  7  1.92739 0.654985 0.375062 1.0 0.0 0.0 0.0  0.3 0.3 0.3  7 0 0 0 0 0 2
56  9  1.31665 0.23715 0.375062 1.0 0.0 0.0 0.0  0.1 0.1 0.1  7 0 0 0 0 0 2
57 3 1.26713 0.203271 0.375062 0 0.29552 -0.955336 0  0.4 0.3 0.1  7 0 0 0 0 0 2
58  7  2.13 0 0 1.0 0.0 0.0 0.0  0.3 0.3 0.3  7 0 0 0 0 0 2
59  9  1.39 0 0 1.0 0.0 0.0 0.0  0.1 0.1 0.1  7 0 0 0 0 0 2
60 3 1.33 0 0 0 0 -1 0  0.4 0.3 0.1  7 0 0 0 0 0 2
ITEM: TIMESTEP
40
ITEM: NUMBER OF ATOMS
60
ITEM: BOX BOUNDS
-115 115
-115 115
-115 115
ITEM: ATOMS id type x y z c_q[1] c_q[2] c_q[3] c_q[4] c_shape[1] c_shape[2] c_shape[3] vx vy vz angmomx angmomy angmomz mol
1  7  -0.4 0 0 1.0 0.0 0.0 0.0  0.3 0.3 0.3  -0.120662 -0.255424 0.213789 0 0 0 1
2  9  0.34 0 0 1.0 0.0 0.0 0.0  0.1 0.1 0.1  -0.120662 -0.255424 0.213789 0 0 0 1
3 2 0.4 0 0 1 0 0 0  0.4 0.3 0.1  -0.120662 -0.255424 0.213789 0 0 0 1
4  7  -0.197389 -0.654985 0.375062 1.0 0.0 0.0 0.0  0.3 0.3 0.3  0.0834641 0.238237 -0.202857 0 0 0 1
5  9  0.413359 -0.23715 0.375062 1.0 0.0 0.0 0.0  0.1 0.1 0.1  0.0834641 0.238237 -0.202857 0 0 0 1
6 2 0.462879 -0.203271 0.375062 0.955336 0 0 0.29552  0.4 0.3 0.1  0.0834641 0.238237 -0.202857 0 0 0 1
7  7  0.339664 -1.08117 0.750123 1.0 0.0 0.0 0.0  0.3 0.3 0.3  0.0193511 0.135814 -0.116219 0 0 0 1
8  9  0.60781 -0.391457 0.750123 1.0 0.0 0.0 0.0  0.1 0.1 0.1  0.0193511 0.135814 -0.116219 0 0 0 1
9 2 0.629552 -0.335535 0.750123 0.825336 0 0 0.564642  0.4 0.3 0.1  0.0193511 0.135814 -0.116219 0 0 0 1
10  7  1.02355 -1.12966 1.12518 1.0 0.0 0.0 0.0  0.3 0.3 0.3  0.101297 0.0443199 0.136614 0 0 0 1
11  9  0.855425 -0.409016 1.12518 1.0 0.0 0.0 0.0  0.1 0.1 0.1  0.101297 0.0443199 0.136614 0 0 0 1
12 2 0.841793 -0.350585 1.12518 0.62161 0 0 0.783327  0.4 0.3 0.1  0.101297 0.0443199 0.136614 0 0 0 1
13  7  1.61538 -0.783537 1.50025 1.0 0.0 0.0 0.0  0.3 0.3 0.3  0.133566 -0.13011 0.172933 0 0 0 1
14  9  1.06971 -0.283694 1.50025 1.0 0.0 0.0 0.0  0.1 0.1 0.1  0.133566 -0.13011 0.172933 0 0 0 1
15 2 1.02546 -0.243167 1.50025 0.362358 0 0 0.932039  0.4 0.3 0.1  0.133566 -0.13011 0.172933 0 0 0 1
16  7  -0.0953763 0.783537 1.50025 1.0 0.0 0.0 0.0  0.3 0.3 0.3  -0.196419 -0.047807 0.121986 0 0 0 1
17  9  0.450295 0.283694 1.50025 1.0 0.0 0.0 0.0  0.1 0.1 0.1  -0.196419 -0.047807 0.121986 0 0 0 1
18 3 0.494538 0.243167 1.50025 0 0.932039 -0.362358 0  0.4 0.3 0.1  -0.196419 -0.047807 0.121986 0 0 0 1
19  7  0.496445 1.12966 1.12518 1.0 0.0 0.0 0.0  0.3 0.3 0.3  0.159703 -0.239538 0.0402914 0 0 0 1
20  9  0.664575 0.409016 1.12518 1.0 0.0 0.0 0.0  0.1 0.1 0.1  0.159703 -0.239538 0.0402914 0 0 0 1
21 3 0.678207 0.350585 1.12518 0 0.783327 -0.62161 0  0.4 0.3 0.1  0.159703 -0.239538 0.0402914 0 0 0 1
22  7  1.18033 1.08117 0.750123 1.0 0.0 0.0 0.0  0.3 0.3 0.3  0.0633523 0.27405 -0.0248899 0 0 0 1
23  9  0.912188 0.391457 0.750123 1.0 0.0 0.0 0.0  0.1 0.1 0.1  0.0633523 0.27405 -0.0248899 0 0 0 1
24 3 0.890446 0.335535 0.750123 0 0.564642 -0.825336 0  0.4 0.3 0.1  0.0633523 0.27405 -0.0248899 0 0 0 1
25  7  1.71739 0.654985 0.375062 1.0 0.0 0.0 0.0  0.3 0.3 0.3  0.0454271 -0.0949375 0.00414135 0 0 0 1
26  9  1.10665 0.23715 0.375062 1.0 0.0 0.0 0.0  0.1 0.1 0.1  0.0454271 -0.0949375 0.00414135 0 0 0 1
27 3 1.05713 0.203271 0.375062 0 0.29552 -0.955336 0  0.4 0.3 0.1  0.0454271 -0.0949375 0.00414135 0 0 0 1
28  7  1.92 0 0 1.0 0.0 0.0 0.0  0.3 0.3 0.3  -0.010531 -0.19788 0.304703 0 0 0 1
29  9  1.18 0 0 1.0 0.0 0.0 0.0  0.1 0.1 0.1  -0.010531 -0.19788 0.304703 0 0 0 1
30 3 1.12 0 0 0 0 -1 0  0.4 0.3 0.1  -0.010531 -0.19788 0.304703 0 0 0 1
31  7  -0.12 0 0 1.0 0.0 0.0 0.0  0.3 0.3 0.3  7 0 0 0 0 0 2
32  9  0.62 0 0 1.0 0.0 0.0 0.0  0.1 0.1 0.1  7 0 0 0 0 0 2
33 2 0.68 0 0 1 0 0 0  0.4 0.3 0.1  7 0 0 0 0 0 2
34  7  0.0826107 -0.654985 0.375062 1.0 0.0 0.0 0.0  0.3 0.3 0.3  7 0 0 0 0 0 2
35  9  0.693359 -0.23715 0.375062 1.0 0.0 0.0 0.0  0.1 0.1 0.1  7 0 0 0 0 0 2
36 2 0.742879 -0.203271 0.375062 0.955336 0 0 0.29552  0.4 0.3 0.1  7 0 0 0 0 0 2
37  7  0.619664 -1.08117 0.750123 1.0 0.0 0.0 0.0  0.3 0.3 0.3  7 0 0 0 0 0 2
38  9  0.88781 -0.391457 0.750123 1.0 0.0 0.0 0.0  0.1 0.1 0.1  7 0 0 0 0 0 2
39 2 0.909552 -0.335535 0.750123 0.825336 0 0 0.564642  0.4 0.3 0.1  7 0 0 0 0 0 2
40  7  1.30355 -1.12966 1.12518 1.0 0.0 0.0 0.0  0.3 0.3 0.3  7 0 0 0 0 0 2
41  9  1.13542 -0.409016 1.12518 1.0 0.0 0.0 0.0  0.1 0.1 0.1  7 0 0 0 0 0 2
42 2 1.12179 -0.350585 1.12518 0.62161 0 0 0.783327  0.4 0.3 0.1  7 0 0 0 0 0 2
43  7  1.89538 -0.783537 1.50025 1.0 0.0 0.0 0.0  0.3 0.3 0.3  7 0 0 0 0 0 2
44  9  1.34971 -0.283694 1.50025 1.0 0.0 0.0 0.0  0.1 0.1 0.1  7 0 0 0 0 0 2
45 2 1.30546 -0.243167 1.50025 0.362358 0 0 0.932039  0.4 0.3 0.1  7 0 0 0 0 0 2
46  7  0.184624 0.783537 1.50025 1.0 0.0 0.0 0.0  0.3 0.3 0.3  7 0 0 0 0 0 2
47  9  0.730295 0.283694 1.50025 1.0 0.0 0.0 0.0  0.1 0.1 0.1  7 0 0 0 0 0 2
48 3 0.774538 0.243167 1.50025 0 0.932039 -0.362358 0  0.4 0.3 0.1  7 0 0 0 0 0 2
49  7  0.776445 1.12966 1.12518 1.0 0.0 0.0 0.0  0.3 0.3 0.3  7 0 0 0 0 0 2
50  9  0.944575 0.409016 1.12518 1.0 0.0 0.0 0.0  0.1 0.1 0.1  7 0 0 0 0 0 2
51 3 0.958207 0.350585 1.12518 0 0.783327 -0.62161 0  0.4 0.3 0.1  7 0 0 0 0 0 2
52  7  1.46033 1.08117 0.750123 1.0 0.0 0.0 0.0  0.3 0.3 0.3  7 0 0 0 0 0 2
53  9  1.19219 0.391457 0.750123 1.0 0.0 0.0 0.0  0.1 0.1 0.1  7 0 0 0 0 0 2
54 3 1.17045 0.335535 0.750123 0 0.564642 -0.825336 0  0.4 0.3 0.1  7 0 0 0 0 0 2
55  7  1.99739 0.654985 0.375062 1.0 0.0 0.0 0.0  0.3 0.3 0.3  7 0 0 0 0 0 2
56  9  1.38665 0.23715 0.375062 1.0 0.0 0.0 0.0  0.1 0.1 0.1  7 0 0 0 0 0 2
57 3 1.33713 0.203271 0.375062 0 0.29552 -0.955336 0  0.4 0.3 0.1  7 0 0 0 0 0 2
58  7  2.2 0 0 1.0 0.0 0.0 0.0  0.3 0.3 0.3  7 0 0 0 0 0 2
59  9  1.46 0 0 1.0 0.0 0.0 0.0  0.1 0.1 0.1  7 0 0 0 0 0 2
60 3 1.4 0 0 0 0 -1 0  0.4 0.3 0.1  7 0 0 0 0 0 2
ITEM: TIMESTEP
50
ITEM: NUMBER OF ATOMS
60
ITEM: BOX BOUNDS
-115 115
-115 115
-115 115
ITEM: ATOMS id type x y z c_q[1] c_q[2] c_q[3] c_q[4] c_shape[1] c_shape[2] c_shape[3] vx vy vz angmomx angmomy angmomz mol
1  7  -0.4 0 0 1.0 0.0 0.0 0.0  0.3 0.3 0.3  -0.120662 -0.255424 0.213789 0 0 0 1
2  9  0.34 0 0 1.0 0.0 0.0 0.0  0.1 0.1 0.1  -0.120662 -0.255424 0.213789 0 0 0 1
3 2 0.4 0 0 1 0 0 0  0.4 0.3 0.1  -0.120662 -0.255424 0.213789 0 0 0 1
4  7  -0.197389 -0.654985 0.375062 1.0 0.0 0.0 0.0  0.3 0.3 0.3  0.0834641 0.238237 -0.202857 0 0 0 1
5  9  0.413359 -0.23715 0.375062 1.0 0.0 0.0 0.0  0.1 0.1 0.1  0.0834641 0.238237 -0.202857 0 0 0 1
6 2 0.462879 -0.203271 0.375062 0.955336 0 0 0.29552  0.4 0.3 0.1  0.0834641 0.238237 -0.202857 0 0 0 1
7  7  0.339664 -1.08117 0.750123 1.0 0.0 0.0 0.0  0.3 0.3 0.3  0.0193511 0.135814 -0.116219 0 0 0 1
8  9  0.60781 -0.391457 0.750123 1.0 0.0 0.0 0.0  0.1 0.1 0.1  0.0193511 0.135814 -0.116219 0 0 0 1
9 2 0.629552 -0.335535 0.750123 0.825336 0 0 0.564642  0.4 0.3 0.1  0.0193511 0.135814 -0.116219 0 0 0 1
10  7  1.02355 -1.12966 1.12518 1.0 0.0 0.0 0.0  0.3 0.3 0.3  0.101297 0.0443199 0.136614 0 0 0 1
11  9  0.855425 -0.409016 1.12518 1.0 0.0 0.0 0.0  0.1 0.1 0.1  0.101297 0.0443199 0.136614 0 0 0 1
12 2 0.841793 -0.350585 1.12518 0.62161 0 0 0.783327  0.4 0.3 0.1  0.101297 0.0443199 0.136614 0 0 0 1
13  7  1.61538 -0.783537 1.50025 1.0 0.0 0.0 0.0  0.3 0.3 0.3  0.133566 -0.13011 0.172933 0 0 0 1
14  9  1.06971 -0.283694 1.50025 1.0 0.0 0.0 0.0  0.1 0.1 0.1  0.133566 -0.13011 0.172933 0 0 0 1
15 2 1.02546 -0.243167 1.50025 0.362358 0 0 0.932039  0.4 0.3 0.1  0.133566 -0.13011 0.172933 0 0 0 1
16  7  -0.0953763 0.783537 1.50025 1.0 0.0 0.0 0.0  0.3 0.3 0.3  -0.196419 -0.047807 0.121986 0 0 0 1
17  9  0.450295 0.283694 1.50025 1.0 0.0 0.0 0.0  0.1 0.1 0.1  -0.196419 -0.047807 0.121986 0 0 0 1
18 3 0.494538 0.243167 1.50025 0 0.932039 -0.362358 0  0.4 0.3 0.1  -0.196419 -0.047807 0.121986 0 0 0 1
19  7  0.496445 1.12966 1.12518 1.0 0.0 0.0 0.0  0.3 0.3 0.3  0.159703 -0.239538 0.0402914 0 0 0 1
20  9  0.664575 0.409016 1.12518 1.0 0.0 0.0 0.0  0.1 0.1 0.1  0.159703 -0.239538 0.0402914 0 0 0 1
21 3 0.678207 0.350585 1.12518 0 0.783327 -0.62161 0  0.4 0.3 0.1  0.159703 -0.239538 0.0402914 0 0 0 1
22  7  1.18033 1.08117 0.750123 1.0 0.0 0.0 0.0  0.3 0.3 0.3  0.0633523 0.27405 -0.0248899 0 0 0 1
23  9  0.912188 0.391457 0.750123 1.0 0.0 0.0 0.0  0.1 0.1 0.1  0.0633523 0.27405 -0.0248899 0 0 0 1